# vtk DataFile Version 3.0
#This file was generated by the deal.II library on 2024/5/17 at 10:08:07
ASCII
DATASET UNSTRUCTURED_GRID

POINTS 57845 double
-3.68402 -2.67332 0
-2.85714 -1.28846 0
-3.44957 -1.91954 0.298982
-2.90457 -2.44257 0.236562
-4.22261 1.64632 1
-4 1.51724 1
-4.22116 1.43448 1
-3.72414 1.65517 0.635057
4.23043 -3.35989 1
4 -3.72414 1
4 -3.44828 1
3.72414 -3.58621 0.606332
-0.551724 -0.827586 0.875862
-0.413793 -0.965517 1
-0.689655 -0.965517 1
-0.275862 -0.965517 0.446608
-0.413793 -0.965517 1
-0.551724 -1.10345 0.875862
-0.689655 -0.965517 1
-0.275862 -0.965517 0.446608
3.60101 -4.21521 1
3.72414 -4 1
4 -4 1
3.44828 -3.86207 0.458684
-3.71949 -0.0245062 0
-2.85714 1.1859 0
-4.05136 1.32892 0
-3.58621 0.689655 0.245618
-0.137931 -2.34483 1
-0.275862 -2.2069 0.875862
-0.137931 -2.06897 1
-0.137931 -2.48276 0.632184
-0.137931 -2.06897 1
-2.22045e-16 -2.2069 0.875862
-0.137931 -2.34483 1
-0.137931 -2.48276 0.632184
-0.137931 -2.62069 1
-0.137931 -2.89655 1
-0.275862 -2.75862 0.875862
-0.137931 -2.48276 0.632184
-0.137931 -2.62069 1
-2.22045e-16 -2.75862 0.875862
-0.137931 -2.89655 1
-0.137931 -2.48276 0.632184
-0.137931 -2.06897 1
-0.275862 -2.2069 0.875862
-0.413793 -2.06897 1
-0.262895 -1.82985 0.732996
0.137931 -1.7931 1
-2.22045e-16 -1.93103 0.875862
-0.137931 -1.7931 1
-0.262895 -1.82985 0.732996
-0.137931 -1.7931 1
0 -1.65517 0.875862
0.137931 -1.7931 1
-0.262895 -1.82985 0.732996
-0.137931 -2.06897 1
-0.413793 -2.06897 1
-0.275862 -1.90476 0.900383
-0.262895 -1.82985 0.732996
-0.413793 -3.17241 1
-0.275862 -3.31034 0.875862
-0.413793 -3.44828 1
-0.413793 -3.03448 0.586207
-0.413793 -3.44828 1
-0.551724 -3.31034 0.875862
-0.413793 -3.17241 1
-0.413793 -3.03448 0.586207
0.413793 -2.06897 1
0.551724 -2.2069 0.875862
0.413793 -2.34483 1
0.420953 -2.47941 0.613124
0.275862 -2.2069 0.875862
0.413793 -2.06897 1
0.413793 -2.34483 1
0.420953 -2.47941 0.613124
-1.65517 1.93103 0.875862
-1.51724 2.06897 1
-1.51724 1.7931 1
-1.51724 1.65517 0.446909
-1.37931 1.93103 0.875862
-1.51724 1.7931 1
-1.51724 2.06897 1
-1.51724 1.65517 0.446909
-0.413793 -0.965517 1
-0.551724 -0.827586 0.875862
-0.413793 -0.689655 1
-0.413793 -0.551724 0.632184
-0.413793 -0.965517 1
-0.413793 -0.689655 1
-0.275862 -0.827586 0.875862
-0.413793 -0.551724 0.632184
0.413793 -1.51724 1
0.551724 -1.65517 0.875862
0.413793 -1.7931 1
0.413793 -1.93103 0.602974
0.413793 -1.7931 1
0.275862 -1.65517 0.875862
0.413793 -1.51724 1
0.413793 -1.93103 0.602974
-0.137931 -1.24138 1
-0.275862 -1.10345 0.875862
-0.137931 -0.965517 1
-0.111532 -1.36213 0.609095
-0.137931 -0.965517 1
0 -1.10345 0.875862
-0.137931 -1.24138 1
-0.111532 -1.36213 0.609095
-0.827586 -1.37931 0.875862
-0.965517 -1.24138 1
-0.689655 -1.24138 1
-1.10345 -1.24138 0.586207
-0.827586 -1.10345 0.875862
-0.689655 -1.24138 1
-0.965517 -1.24138 1
-1.10345 -1.24138 0.586207
-0.413793 -2.06897 1
-0.551724 -2.2069 0.875862
-0.689655 -2.06897 1
-0.827586 -2.06897 0.568596
-0.689655 -2.06897 1
-0.551724 -1.93103 0.875862
-0.413793 -2.06897 1
-0.827586 -2.06897 0.568596
-0.965517 -2.06897 1
-1.10345 -2.2069 0.875862
-1.24138 -2.06897 1
-0.827586 -2.06897 0.568596
-1.24138 -2.06897 1
-1.10345 -1.93103 0.875862
-0.965517 -2.06897 1
-0.827586 -2.06897 0.568596
-0.689655 -3.72414 1
-0.827586 -3.86207 0.875862
-0.965517 -3.72414 1
-1.10345 -3.72414 0.586207
-0.965517 -3.72414 1
-0.827586 -3.58621 0.875862
-0.689655 -3.72414 1
-1.10345 -3.72414 0.586207
-0.137931 -0.137931 1
-0.137931 0.137931 1
0 0 0.931034
-0.137931 -0.275862 0.586207
-0.137931 0.137931 1
-0.137931 -0.137931 1
-0.275862 0 0.875862
-0.137931 -0.275862 0.586207
-2.06897 -3.44828 1
-1.93103 -3.58621 0.875862
-2.06897 -3.72414 1
-2.06897 -3.31034 0.635057
-2.06897 -3.72414 1
-2.2069 -3.58621 0.875862
-2.06897 -3.44828 1
-2.06897 -3.31034 0.635057
-1.24138 0.965517 1
-1.51724 0.965517 1
-1.37931 1.10345 0.875862
-1.10345 0.965517 0.586207
-1.24138 0.965517 1
-1.37931 0.827586 0.875862
-1.51724 0.965517 1
-1.10345 0.965517 0.586207
0.689655 -3.44828 1
0.551724 -3.31034 0.875862
0.689655 -3.17241 1
0.689655 -3.58621 0.632184
0.689655 -3.17241 1
0.827586 -3.31034 0.875862
0.689655 -3.44828 1
0.689655 -3.58621 0.632184
0.413793 -0.965517 1
0.275862 -0.827586 0.875862
0.413793 -0.689655 1
0.413711 -0.551278 0.577216
0.413793 -0.689655 1
0.551724 -0.827586 0.875862
0.413793 -0.965517 1
0.413711 -0.551278 0.577216
0.551724 -1.10345 0.875862
0.689655 -0.965517 1
0.689655 -1.24138 1
0.689655 -1.37931 0.586207
0.689655 -0.965517 1
0.827586 -1.10345 0.875862
0.689655 -1.24138 1
0.689655 -1.37931 0.586207
-0.689655 2.06897 1
-0.689655 2.34483 1
-0.551724 2.2069 0.875862
-0.689655 1.93103 0.632184
-0.827586 2.2069 0.875862
-0.689655 2.34483 1
-0.689655 2.06897 1
-0.689655 1.93103 0.632184
-0.689655 1.51724 1
-0.827586 1.65517 0.875862
-0.689655 1.7931 1
-0.689655 1.93103 0.632184
-0.689655 1.7931 1
-0.551724 1.65517 0.875862
-0.689655 1.51724 1
-0.689655 1.93103 0.632184
0.965517 -2.06897 1
0.827586 -2.2069 0.875862
0.689655 -2.06897 1
1.10345 -2.06897 0.603122
0.689655 -2.06897 1
0.827586 -1.93103 0.875862
0.965517 -2.06897 1
1.10345 -2.06897 0.603122
-1.51724 -2.89655 1
-1.37931 -2.75862 0.875862
-1.24138 -2.89655 1
-1.10345 -2.89655 0.586207
-0.965517 -2.89655 1
-0.827586 -2.75862 0.875862
-0.689655 -2.89655 1
-1.10345 -2.89655 0.586207
-0.689655 -2.89655 1
-0.827586 -3.03448 0.875862
-0.965517 -2.89655 1
-1.10345 -2.89655 0.586207
-1.24138 -2.89655 1
-1.37931 -3.03448 0.875862
-1.51724 -2.89655 1
-1.10345 -2.89655 0.586207
0.965517 -2.62069 1
0.689655 -2.62069 1
0.827586 -2.48276 0.875862
1.10345 -2.62069 0.586207
0.965517 -2.62069 1
0.827586 -2.75862 0.875862
0.689655 -2.62069 1
1.10345 -2.62069 0.586207
-0.137931 0.965517 1
-0.137931 0.689655 1
-0.275862 0.827586 0.875862
-0.137931 1.10345 0.632184
-0.137931 0.689655 1
-0.137931 0.965517 1
0 0.827586 0.875862
-0.137931 1.10345 0.632184
-0.965517 -0.137931 1
-0.689655 -0.137931 1
-0.827586 -0.275862 0.875862
-1.11744 -0.128567 0.720423
-1.51724 -0.137931 1
-1.24138 -0.137931 1
-1.37931 -0.275862 0.875862
-1.11744 -0.128567 0.720423
-1.51724 -0.137931 1
-1.37931 2.22045e-16 0.875862
-1.24138 -0.137931 1
-1.11744 -0.128567 0.720423
-0.965517 -0.137931 1
-0.827586 0 0.875862
-0.689655 -0.137931 1
-1.11744 -0.128567 0.720423
0.551724 -0.275862 0.875862
0.689655 -0.137931 1
0.689655 -0.413793 1
0.689655 -2.77556e-17 0.586207
0.689655 -0.137931 1
0.827586 -0.275862 0.875862
0.689655 -0.413793 1
0.689655 -2.77556e-17 0.586207
-1.7931 -1.51724 1
-2.06897 -1.51724 1
-1.93103 -1.37931 0.875862
-1.65517 -1.51724 0.632184
-1.7931 -1.51724 1
-1.93103 -1.65517 0.875862
-2.06897 -1.51724 1
-1.65517 -1.51724 0.632184
-1.51724 -1.51724 1
-1.37931 -1.37931 0.875862
-1.24138 -1.51724 1
-1.65517 -1.51724 0.632184
-1.24138 -1.51724 1
-1.37931 -1.65517 0.875862
-1.51724 -1.51724 1
-1.65517 -1.51724 0.632184
-1.51724 2.89655 1
-1.37931 3.03448 0.875862
-1.24138 2.89655 1
-1.10345 2.89655 0.632184
-1.24138 2.89655 1
-1.37931 2.75862 0.875862
-1.51724 2.89655 1
-1.10345 2.89655 0.632184
3.44828 3.72414 1
3.31034 3.58621 0.875862
3.17241 3.72414 1
3.03448 3.72414 0.586207
3.17241 3.72414 1
3.31034 3.86207 0.875862
3.44828 3.72414 1
3.03448 3.72414 0.586207
1.51724 -1.24138 1
1.37931 -1.37931 0.875862
1.24138 -1.24138 1
1.10345 -1.24138 0.586207
1.24138 -1.24138 1
1.37931 -1.10345 0.875862
1.51724 -1.24138 1
1.10345 -1.24138 0.586207
-1.51724 1.7931 1
-1.24138 1.7931 1
-1.37931 1.65517 0.875862
-1.10345 1.7931 0.586207
-1.37931 1.93103 0.875862
-1.24138 1.7931 1
-1.51724 1.7931 1
-1.10345 1.7931 0.586207
-3.17241 -3.17241 1
-3.03448 -3.03448 0.875862
-2.89655 -3.17241 1
-2.78062 -3.16484 0.765149
-2.89655 -3.17241 1
-3.03448 -3.31034 0.875862
-3.17241 -3.17241 1
-2.78062 -3.16484 0.765149
1.51724 -3.17241 1
1.37931 -3.03448 0.875862
1.51724 -2.89655 1
1.51724 -2.75862 0.586207
1.51724 -2.34483 1
1.65517 -2.48276 0.875862
1.51724 -2.62069 1
1.51724 -2.75862 0.586207
1.51724 -2.62069 1
1.37931 -2.48276 0.875862
1.51724 -2.34483 1
1.51724 -2.75862 0.586207
1.51724 -2.89655 1
1.65517 -3.03448 0.875862
1.51724 -3.17241 1
1.51724 -2.75862 0.586207
1.24138 3.44828 1
1.37931 3.58621 0.875862
1.51724 3.44828 1
1.10345 3.44828 0.586207
1.24138 3.44828 1
1.51724 3.44828 1
1.37931 3.31034 0.875862
1.10345 3.44828 0.586207
-1.24138 -0.689655 1
-1.10345 -0.551724 0.875862
-0.965517 -0.689655 1
-1.37931 -0.689655 0.586207
-1.10345 -0.827586 0.875862
-1.24138 -0.689655 1
-0.965517 -0.689655 1
-1.37931 -0.689655 0.586207
1.24138 -0.689655 1
1.10345 -0.551724 0.875862
1.24138 -0.413793 1
1.24138 -0.827586 0.586207
1.37931 -0.551724 0.875862
1.24138 -0.689655 1
1.24138 -0.413793 1
1.24138 -0.827586 0.586207
1.51724 -2.06897 1
1.37931 -2.2069 0.875862
1.24138 -2.06897 1
1.65517 -2.06897 0.632184
1.37931 -1.93103 0.875862
1.51724 -2.06897 1
1.24138 -2.06897 1
1.65517 -2.06897 0.632184
3.17241 -3.72414 1
3.31034 -3.58621 0.875862
3.44828 -3.72414 1
3.03448 -3.72414 0.586207
3.44828 -3.72414 1
3.31034 -3.86207 0.875862
3.17241 -3.72414 1
3.03448 -3.72414 0.586207
-1.51724 1.24138 1
-1.37931 1.37931 0.875862
-1.24138 1.24138 1
-1.65517 1.24138 0.568773
-1.24138 1.24138 1
-1.37931 1.10345 0.875862
-1.51724 1.24138 1
-1.65517 1.24138 0.568773
1.24138 2.89655 1
1.10345 3.03448 0.875862
1.24138 3.17241 1
1.24138 2.75862 0.632184
1.37931 3.03448 0.875862
1.24138 2.89655 1
1.24138 3.17241 1
1.24138 2.75862 0.632184
0.137931 2.89655 1
0 2.75862 0.875862
-0.137931 2.89655 1
-0.275862 2.89655 0.586207
-0.137931 2.89655 1
0 3.03448 0.875862
0.137931 2.89655 1
-0.275862 2.89655 0.586207
0.413793 0.689655 1
0.275862 0.551724 0.875862
0.137931 0.689655 1
0.551724 0.689655 0.632184
0.137931 0.689655 1
0.275862 0.827586 0.875862
0.413793 0.689655 1
0.551724 0.689655 0.632184
-0.413793 3.44828 1
-0.551724 3.31034 0.875862
-0.689655 3.44828 1
-0.827586 3.44828 0.586207
-0.551724 3.58621 0.875862
-0.413793 3.44828 1
-0.689655 3.44828 1
-0.827586 3.44828 0.586207
-1.42481 -1.29219 0
0.0230785 -1.30877 0
-0.709812 -0.0552898 0
[...]
POINT_DATA 57845
SCALARS solution_0 double 1
LOOKUP_TABLE default
0 0 5.56109e-06 4.71729e-06 1.4743e-05 1.5113e-05 1.48596e-05 1.03893e-05 1.28139e-05 1.25687e-05 1.32635e-05 8.72473e-06 1.68749e-05 1.87664e-05 1.88006e-05 9.83254e-06 1.87664e-05 1.69228e-05 1.88006e-05 9.83254e-06 1.09139e-05 1.177e-05 1.12587e-05 6.28613e-06 0 0 0 4.65773e-06 1.82129e-05 1.64726e-05 1.84071e-05 1.2635e-05 1.84071e-05 1.64965e-05 1.82129e-05 1.2635e-05 1.79428e-05 1.77085e-05 1.60753e-05 1.2635e-05 1.79428e-05 1.6081e-05 1.77085e-05 1.2635e-05 1.84071e-05 1.64726e-05 1.84503e-05 1.45894e-05 1.85336e-05 1.67531e-05 1.84402e-05 1.45894e-05 1.84402e-05 1.67139e-05 1.85336e-05 1.45894e-05 1.84071e-05 1.84503e-05 1.7006e-05 1.45894e-05 1.71759e-05 1.52225e-05 1.66823e-05 1.15595e-05 1.66823e-05 1.52633e-05 1.71759e-05 1.15595e-05 1.83832e-05 1.64334e-05 1.82056e-05 1.23852e-05 1.64831e-05 1.83832e-05 1.82056e-05 1.23852e-05 1.64447e-05 1.83684e-05 1.83323e-05 9.70484e-06 1.65547e-05 1.83323e-05 1.83684e-05 9.70484e-06 1.87664e-05 1.68749e-05 1.87591e-05 1.31355e-05 1.87664e-05 1.87591e-05 1.69082e-05 1.31355e-05 1.86235e-05 1.66853e-05 1.84693e-05 1.23243e-05 1.84693e-05 1.66782e-05 1.86235e-05 1.23243e-05 1.86405e-05 1.69025e-05 1.8788e-05 1.28227e-05 1.8788e-05 1.69164e-05 1.86405e-05 1.28227e-05 1.67464e-05 1.85633e-05 1.86555e-05 1.21716e-05 1.68303e-05 1.86555e-05 1.85633e-05 1.21716e-05 1.84503e-05 1.64657e-05 1.83224e-05 1.18447e-05 1.83224e-05 1.67353e-05 1.84503e-05 1.18447e-05 1.82627e-05 1.64427e-05 1.82771e-05 1.18447e-05 1.82771e-05 1.6567e-05 1.82627e-05 1.18447e-05 1.56323e-05 1.30951e-05 1.56051e-05 9.83107e-06 1.56051e-05 1.44966e-05 1.56323e-05 9.83107e-06 1.88376e-05 1.89478e-05 1.79072e-05 1.25028e-05 1.89478e-05 1.88376e-05 1.70592e-05 1.25028e-05 1.62096e-05 1.41718e-05 1.53772e-05 1.15341e-05 1.53772e-05 1.40578e-05 1.62096e-05 1.15341e-05 1.85723e-05 1.85924e-05 1.68102e-05 1.23645e-05 1.85723e-05 1.67294e-05 1.85924e-05 1.23645e-05 1.65192e-05 1.52117e-05 1.72206e-05 1.10993e-05 1.72206e-05 1.51938e-05 1.65192e-05 1.10993e-05 1.88157e-05 1.69345e-05 1.87538e-05 1.23389e-05 1.87538e-05 1.69781e-05 1.88157e-05 1.23389e-05 1.69038e-05 1.88513e-05 1.86575e-05 1.22473e-05 1.88513e-05 1.68679e-05 1.86575e-05 1.22473e-05 1.83201e-05 1.82038e-05 1.65334e-05 1.3111e-05 1.64753e-05 1.82038e-05 1.83201e-05 1.3111e-05 1.86144e-05 1.6766e-05 1.8459e-05 1.3111e-05 1.8459e-05 1.67938e-05 1.86144e-05 1.3111e-05 1.82672e-05 1.64477e-05 1.83785e-05 1.22567e-05 1.83785e-05 1.66159e-05 1.82672e-05 1.22567e-05 1.75918e-05 1.59296e-05 1.7553e-05 1.15427e-05 1.75662e-05 1.61018e-05 1.76551e-05 1.15427e-05 1.76551e-05 1.57099e-05 1.75662e-05 1.15427e-05 1.7553e-05 1.57099e-05 1.75918e-05 1.15427e-05 1.78765e-05 1.79736e-05 1.63462e-05 1.17656e-05 1.78765e-05 1.60654e-05 1.79736e-05 1.17656e-05 1.87067e-05 1.87863e-05 1.69302e-05 1.32394e-05 1.87863e-05 1.87067e-05 1.69407e-05 1.32394e-05 1.87708e-05 1.88205e-05 1.70484e-05 1.47591e-05 1.86666e-05 1.87211e-05 1.69624e-05 1.47591e-05 1.86666e-05 1.70271e-05 1.87211e-05 1.47591e-05 1.87708e-05 1.70633e-05 1.88205e-05 1.47591e-05 1.70064e-05 1.87909e-05 1.89044e-05 1.22609e-05 1.87909e-05 1.69357e-05 1.89044e-05 1.22609e-05 1.8296e-05 1.83195e-05 1.65538e-05 1.27916e-05 1.8296e-05 1.64434e-05 1.83195e-05 1.27916e-05 1.83757e-05 1.66704e-05 1.85153e-05 1.27916e-05 1.85153e-05 1.66358e-05 1.83757e-05 1.27916e-05 1.75106e-05 1.56383e-05 1.75065e-05 1.2376e-05 1.75065e-05 1.59744e-05 1.75106e-05 1.2376e-05 1.37985e-05 1.29197e-05 1.42404e-05 9.07011e-06 1.42404e-05 1.16075e-05 1.37985e-05 9.07011e-06 1.85416e-05 1.67145e-05 1.85433e-05 1.22384e-05 1.85433e-05 1.68321e-05 1.85416e-05 1.22384e-05 1.83323e-05 1.83554e-05 1.65786e-05 1.21841e-05 1.65547e-05 1.83554e-05 1.83323e-05 1.21841e-05 1.57543e-05 1.45103e-05 1.61231e-05 1.30863e-05 1.61231e-05 1.4064e-05 1.57543e-05 1.30863e-05 1.71343e-05 1.56131e-05 1.74168e-05 1.15259e-05 1.82163e-05 1.61723e-05 1.77516e-05 1.15259e-05 1.77516e-05 1.62239e-05 1.82163e-05 1.15259e-05 1.74168e-05 1.55045e-05 1.71343e-05 1.15259e-05 1.64797e-05 1.43363e-05 1.64547e-05 1.08058e-05 1.64797e-05 1.64547e-05 1.5088e-05 1.08058e-05 1.86534e-05 1.69161e-05 1.89031e-05 1.23191e-05 1.68695e-05 1.86534e-05 1.89031e-05 1.23191e-05 1.86516e-05 1.69459e-05 1.8772e-05 1.23416e-05 1.68511e-05 1.86516e-05 1.8772e-05 1.23416e-05 1.8113e-05 1.63982e-05 1.82273e-05 1.26551e-05 1.64741e-05 1.8113e-05 1.82273e-05 1.26551e-05 1.42986e-05 1.29067e-05 1.37741e-05 9.05207e-06 1.37741e-05 1.16513e-05 1.42986e-05 9.05207e-06 1.8462e-05 1.67264e-05 1.86087e-05 1.18179e-05 1.86087e-05 1.68102e-05 1.8462e-05 1.18179e-05 1.75053e-05 1.56524e-05 1.71599e-05 1.25571e-05 1.56388e-05 1.75053e-05 1.71599e-05 1.25571e-05 1.76788e-05 1.61662e-05 1.76263e-05 1.18047e-05 1.76263e-05 1.58227e-05 1.76788e-05 1.18047e-05 1.87299e-05 1.71023e-05 1.88198e-05 1.32684e-05 1.88198e-05 1.69584e-05 1.87299e-05 1.32684e-05 1.66303e-05 1.53131e-05 1.65861e-05 1.08957e-05 1.45464e-05 1.66303e-05 1.65861e-05 1.08957e-05 0 0 0 7.03278e-06 1.74085e-05 1.58195e-05 1.75918e-05 1.1308e-05 1.75918e-05 1.5637e-05 1.74085e-05 1.1308e-05 1.54682e-05 1.55221e-05 1.4625e-05 1.0864e-05 1.28167e-05 1.55221e-05 1.54682e-05 1.0864e-05 1.66962e-05 1.84593e-05 1.85163e-05 1.27471e-05 1.84593e-05 1.65489e-05 1.85163e-05 1.27471e-05 1.83169e-05 1.6651e-05 1.82832e-05 1.30917e-05 1.82832e-05 1.64754e-05 1.83169e-05 1.30917e-05 1.68614e-05 1.49545e-05 1.69326e-05 1.12436e-05 1.69326e-05 1.54958e-05 1.68614e-05 1.12436e-05 1.79648e-05 1.79276e-05 1.61397e-05 1.19323e-05 1.63691e-05 1.79276e-05 1.79648e-05 1.19323e-05 1.72513e-05 1.52887e-05 1.65438e-05 1.05259e-05 1.65438e-05 1.52166e-05 1.72513e-05 1.05259e-05 0 0 0 6.91958e-06 1.8733e-05 1.87501e-05 1.69774e-05 1.24322e-05 1.87501e-05 1.8733e-05 1.69014e-05 1.24322e-05 1.56377e-05 1.56906e-05 1.45464e-05 1.0298e-05 1.56991e-05 1.5629e-05 1.45662e-05 1.0298e-05 1.3306e-05 1.56906e-05 1.56377e-05 1.0298e-05 1.32491e-05 1.5629e-05 1.56991e-05 1.0298e-05 1.41421e-05 1.19375e-05 1.32895e-05 7.43725e-06 1.41421e-05 1.32895e-05 1.24055e-05 7.43725e-06 0 0 0 1.16049e-05 1.86816e-05 1.87998e-05 1.69774e-05 1.23239e-05 1.86369e-05 1.68875e-05 1.86224e-05 1.23239e-05 1.86816e-05 1.69497e-05 1.87998e-05 1.23239e-05 1.86369e-05 1.86224e-05 1.6752e-05 1.23239e-05 1.68027e-05 1.86251e-05 1.84754e-05 1.25848e-05 1.66452e-05 1.84754e-05 1.86251e-05 1.25848e-05 1.73609e-05 1.59461e-05 1.74883e-05 1.14707e-05 1.74883e-05 1.55749e-05 1.73609e-05 1.14707e-05 1.59293e-05 1.43947e-05 1.5871e-05 1.00131e-05 1.5871e-05 1.38005e-05 1.59293e-05 1.00131e-05 1.87949e-05 1.86529e-05 1.69313e-05 1.24469e-05 1.86529e-05 1.87949e-05 1.69617e-05 1.24469e-05 1.68351e-05 1.85387e-05 1.86616e-05 1.30288e-05 1.67126e-05 1.86616e-05 1.85387e-05 1.30288e-05 1.38838e-05 1.16368e-05 1.34316e-05 7.54124e-06 1.34316e-05 1.24559e-05 1.38838e-05 7.54124e-06 0 4.9815e-06 0 5.14901e-06 1.81697e-05 1.62987e-05 1.79126e-05 1.1638e-05 1.79126e-05 1.61914e-05 1.81697e-05 1.1638e-05 1.58098e-05 1.44409e-05 1.61491e-05 1.03758e-05 1.61491e-05 1.4041e-05 1.58098e-05 1.03758e-05 1.67363e-05 1.85924e-05 1.84211e-05 1.29488e-05 1.63968e-05 1.82766e-05 1.81303e-05 1.29488e-05 1.85924e-05 1.66932e-05 1.84211e-05 1.29488e-05 1.81303e-05 1.82766e-05 1.64213e-05 1.29488e-05 1.6898e-05 1.51034e-05 1.70822e-05 1.1354e-05 1.70822e-05 1.54276e-05 1.6898e-05 1.1354e-05 0 0 0 7.09732e-06 1.8122e-05 1.78741e-05 1.61947e-05 1.17902e-05 1.78741e-05 1.8122e-05 1.63148e-05 1.17902e-05 1.85526e-05 1.84795e-05 1.68215e-05 1.42726e-05 1.84795e-05 1.85526e-05 1.66909e-05 1.42726e-05 1.86224e-05 1.68875e-05 1.85241e-05 1.42726e-05 1.66948e-05 1.86224e-05 1.85241e-05 1.42726e-05 1.43717e-05 1.50201e-05 1.44547e-05 1.03286e-05 1.49108e-05 1.51075e-05 1.45748e-05 9.71026e-06 1.48742e-05 1.63423e-05 1.64702e-05 1.09244e-05 1.63423e-05 1.42449e-05 1.64702e-05 1.09244e-05 1.66517e-05 1.65993e-05 1.45507e-05 1.01565e-05 1.50499e-05 1.65993e-05 1.66517e-05 1.01565e-05 1.57653e-05 1.44893e-05 1.61895e-05 9.85794e-06 1.57653e-05 1.61895e-05 1.40218e-05 9.85794e-06 1.61533e-05 1.82047e-05 1.7916e-05 1.16377e-05 1.82047e-05 1.62893e-05 1.7916e-05 1.16377e-05 1.56162e-05 1.43044e-05 1.61125e-05 1.04525e-05 1.61125e-05 1.39899e-05 1.56162e-05 1.04525e-05 1.81714e-05 1.62311e-05 1.80468e-05 1.1841e-05 1.80468e-05 1.63801e-05 1.81714e-05 1.1841e-05 1.70245e-05 1.55637e-05 1.73317e-05 1.21827e-05 1.73317e-05 1.53388e-05 1.70245e-05 1.21827e-05 1.66667e-05 1.50892e-05 1.71259e-05 1.17899e-05 1.71259e-05 1.50802e-05 1.66667e-05 1.17899e-05 1.65044e-05 1.46079e-05 1.5803e-05 1.03656e-05 1.5803e-05 1.42726e-05 1.65044e-05 1.03656e-05 1.79582e-05 1.6345e-05 1.83195e-05 1.25277e-05 1.83195e-05 1.62769e-05 1.79582e-05 1.25277e-05 1.5861e-05 1.75344e-05 1.78352e-05 1.4984e-05 1.59146e-05 1.78352e-05 1.75344e-05 1.4984e-05 1.75344e-05 1.54591e-05 1.70754e-05 1.07232e-05 1.70754e-05 1.55291e-05 1.75344e-05 1.07232e-05 1.69227e-05 1.48921e-05 1.64107e-05 1.09687e-05 1.64107e-05 1.48374e-05 1.69227e-05 1.09687e-05 1.5803e-05 1.36823e-05 1.57178e-05 1.03893e-05 1.57178e-05 1.42726e-05 1.5803e-05 1.03893e-05 1.45871e-05 1.6592e-05 1.66517e-05 1.24439e-05 1.50703e-05 1.66517e-05 1.6592e-05 1.24439e-05 1.52609e-05 1.41592e-05 1.47359e-05 9.95416e-06 1.47359e-05 1.30481e-05 1.52609e-05 9.95416e-06 1.76857e-05 1.73317e-05 1.57769e-05 1.17096e-05 1.76857e-05 1.56868e-05 1.73317e-05 1.17096e-05 0 0 0 6.95766e-06 1.80968e-05 1.61782e-05 1.7799e-05 1.09884e-05 1.7799e-05 1.61071e-05 1.80968e-05 1.09884e-05 0 0 0 5.19311e-06 1.79695e-05 1.59691e-05 1.75481e-05 1.10673e-05 1.75481e-05 1.58653e-05 1.79695e-05 1.10673e-05 1.81789e-05 1.78438e-05 1.61718e-05 1.21761e-05 1.81789e-05 1.62044e-05 1.78438e-05 1.21761e-05 1.80221e-05 1.63071e-05 1.79764e-05 1.26318e-05 1.79764e-05 1.61032e-05 1.80221e-05 1.26318e-05 1.79088e-05 1.79695e-05 1.62584e-05 1.32919e-05 1.79088e-05 1.59691e-05 1.79695e-05 1.32919e-05 1.75344e-05 1.55291e-05 1.76358e-05 8.9519e-06 1.76358e-05 1.59146e-05 1.75344e-05 8.9519e-06 1.46724e-05 1.67398e-05 1.66212e-05 1.14815e-05 1.67398e-05 1.50949e-05 1.66212e-05 1.14815e-05 1.62967e-05 1.62854e-05 1.42356e-05 1.14815e-05 1.62967e-05 1.5163e-05 1.62854e-05 1.14815e-05 1.68423e-05 1.48644e-05 1.70071e-05 1.14815e-05 1.70071e-05 1.53247e-05 1.68423e-05 1.14815e-05 1.67085e-05 1.47493e-05 1.68848e-05 1.05432e-05 1.68848e-05 1.52156e-05 1.67085e-05 1.05432e-05 1.44719e-05 1.66078e-05 1.65643e-05 1.20993e-05 1.66078e-05 1.50543e-05 1.65643e-05 1.20993e-05 1.56407e-05 1.71902e-05 1.74665e-05 1.15294e-05 1.74665e-05 1.71902e-05 1.5559e-05 1.15294e-05 1.52655e-05 1.35889e-05 1.46301e-05 9.8396e-06 1.46301e-05 1.30618e-05 1.52655e-05 9.8396e-06 1.79793e-05 1.62594e-05 1.78548e-05 1.17591e-05 1.78548e-05 1.5898e-05 1.79793e-05 1.17591e-05 1.82117e-05 1.62225e-05 1.7852e-05 1.14917e-05 1.7852e-05 1.70212e-05 1.82117e-05 1.14917e-05 1.7571e-05 1.76167e-05 1.58907e-05 1.01189e-05 1.76167e-05 1.7571e-05 1.56024e-05 1.01189e-05 0 0 0 5.19664e-06 1.70763e-05 1.49646e-05 1.70785e-05 1.08684e-05 1.70785e-05 1.54689e-05 1.70763e-05 1.08684e-05 1.62967e-05 1.57023e-05 1.43435e-05 9.71055e-06 1.57023e-05 1.62967e-05 1.42356e-05 9.71055e-06 1.74994e-05 1.58075e-05 1.74289e-05 1.24057e-05 1.73662e-05 1.56816e-05 1.72805e-05 1.24057e-05 1.73662e-05 1.72805e-05 1.53247e-05 1.24057e-05 1.74289e-05 1.54192e-05 1.74994e-05 1.24057e-05 1.57655e-05 1.77143e-05 1.77601e-05 1.15767e-05 1.60367e-05 1.77601e-05 1.77143e-05 1.15767e-05 1.65685e-05 1.70763e-05 1.49603e-05 8.87232e-06 1.49646e-05 1.70763e-05 1.65685e-05 8.87232e-06 1.30435e-05 1.54682e-05 1.54816e-05 1.00474e-05 1.43863e-05 1.54816e-05 1.54682e-05 1.00474e-05 1.43366e-05 1.61895e-05 1.64143e-05 1.04861e-05 1.64143e-05 1.61895e-05 1.47315e-05 1.04861e-05 1.38e-05 1.2869e-05 1.32576e-05 6.987e-06 1.58644e-05 1.39651e-05 1.49236e-05 9.82549e-06 1.49236e-05 1.36848e-05 1.58644e-05 9.82549e-06 1.69815e-05 1.49722e-05 1.65044e-05 1.10198e-05 1.65044e-05 1.48599e-05 1.69815e-05 1.10198e-05 1.47263e-05 1.34557e-05 1.50688e-05 1.16488e-05 1.50688e-05 1.30331e-05 1.47263e-05 1.16488e-05 0 0 0 6.48636e-06 1.30612e-05 1.20164e-05 1.46463e-05 9.33316e-06 1.30612e-05 1.46463e-05 1.23551e-05 9.33316e-06 0 0 0 6.83726e-06 0 0 6.07811e-06 6.16085e-06 0 0 5.06078e-06 4.98769e-06 1.81303e-05 1.64213e-05 1.82117e-05 1.03866e-05 1.82117e-05 1.70212e-05 1.81303e-05 1.03866e-05 0 0 0 6.61087e-06 1.41377e-05 1.46544e-05 1.30325e-05 8.80902e-06 1.46544e-05 1.41377e-05 1.25685e-05 8.80902e-06 1.47359e-05 1.22623e-05 1.38838e-05 6.55698e-06 1.38838e-05 1.24559e-05 1.47359e-05 6.55698e-06 1.38e-05 1.29943e-05 1.53117e-05 1.02732e-05 1.38e-05 1.53117e-05 1.2869e-05 1.02732e-05 1.52019e-05 1.29197e-05 1.47338e-05 6.43109e-06 1.47338e-05 1.35732e-05 1.52019e-05 6.43109e-06 1.76358e-05 1.59355e-05 1.79004e-05 1.18741e-05 1.55776e-05 1.76358e-05 1.71314e-05 1.18741e-05 1.76358e-05 1.55291e-05 1.71314e-05 1.18741e-05 1.79004e-05 1.59146e-05 1.76358e-05 1.18741e-05 0 0 0 5.32275e-06 1.89031e-05 1.69161e-05 1.88542e-05 9.78819e-06 1.89031e-05 1.88542e-05 1.63109e-05 9.78819e-06 0 0 0 5.73966e-06 1.60881e-05 1.40144e-05 1.55128e-05 1.04256e-05 1.55128e-05 1.42218e-05 1.60881e-05 1.04256e-05 1.83526e-05 1.64965e-05 1.85272e-05 6.91958e-06 1.83526e-05 1.85272e-05 1.64831e-05 6.91958e-06 0 6.07811e-06 0 6.05722e-06 0 0 0 6.77297e-06 1.88006e-05 1.68303e-05 1.87701e-05 7.03278e-06 1.87701e-05 1.67975e-05 1.88006e-05 7.03278e-06 1.6948e-05 1.89478e-05 1.88608e-05 1.10981e-05 1.70592e-05 1.88608e-05 1.89478e-05 1.10981e-05 0 0 0 6.51737e-06 0 0 0 5.22444e-06 1.83323e-05 1.57829e-05 1.8227e-05 9.70484e-06 1.8227e-05 1.64447e-05 1.83323e-05 9.70484e-06 1.83392e-05 1.84451e-05 1.64872e-05 9.58803e-06 1.5927e-05 1.84451e-05 1.83392e-05 9.58803e-06 0 5.64573e-06 0 5.75717e-06 0 0 6.05722e-06 5.76341e-06 1.8824e-05 1.68679e-05 1.88513e-05 7.09732e-06 1.88513e-05 1.6968e-05 1.8824e-05 7.09732e-06 1.88341e-05 1.62534e-05 1.88792e-05 1.01108e-05 1.88792e-05 1.70633e-05 1.88341e-05 1.01108e-05 1.82388e-05 1.63982e-05 1.82163e-05 6.83726e-06 1.82163e-05 1.62239e-05 1.82388e-05 6.83726e-06 1.44547e-05 1.50127e-05 1.40882e-05 1.01734e-05 1.64107e-05 1.48921e-05 1.6461e-05 7.87784e-06 1.42661e-05 1.64107e-05 1.6461e-05 7.87784e-06 1.63945e-05 1.57663e-05 1.42646e-05 5.46268e-06 1.63945e-05 1.42676e-05 1.57663e-05 5.46268e-06 0 0 0 5.68165e-06 0 0 0 6.59589e-06 1.79402e-05 1.59296e-05 1.75918e-05 6.51737e-06 1.75918e-05 1.58195e-05 1.79402e-05 6.51737e-06 1.42917e-05 1.56876e-05 1.55997e-05 1.16411e-05 1.53449e-05 1.41586e-05 1.55997e-05 1.16411e-05 1.40466e-05 1.55997e-05 1.56876e-05 1.16411e-05 1.55997e-05 1.35844e-05 1.53449e-05 1.16411e-05 0 0 4.95808e-06 5.40459e-06 0 0 6.10731e-06 5.88091e-06 1.83684e-05 1.62893e-05 1.82047e-05 6.77297e-06 1.83684e-05 1.82047e-05 1.63354e-05 6.77297e-06 0 0 5.40459e-06 5.68165e-06 1.31654e-05 6.228e-06 7.99257e-06 9.71224e-06 1.7571e-05 1.58907e-05 1.77454e-05 1.09079e-05 1.79764e-05 1.5995e-05 1.77454e-05 1.09079e-05 1.77454e-05 1.57748e-05 1.7571e-05 1.09079e-05 1.77454e-05 1.61032e-05 1.79764e-05 1.09079e-05 1.45499e-05 1.60804e-05 1.66667e-05 5.73966e-06 1.60804e-05 1.45562e-05 1.66667e-05 5.73966e-06 1.10004e-05 6.28613e-06 5.91811e-06 7.46666e-06 1.41421e-05 1.31294e-05 1.47263e-05 4.75272e-06 1.47263e-05 1.10804e-05 1.41421e-05 4.75272e-06 1.81107e-05 1.62225e-05 1.82117e-05 1.1065e-05 1.81789e-05 1.61718e-05 1.81107e-05 1.1065e-05 1.82117e-05 1.63727e-05 1.81107e-05 1.1065e-05 1.81789e-05 1.81107e-05 1.63941e-05 1.1065e-05 1.59136e-05 1.39095e-05 1.59289e-05 8.29135e-06 1.59136e-05 1.59289e-05 1.37646e-05 8.29135e-06 0 0 0 5.5232e-06 1.77143e-05 1.57655e-05 1.73904e-05 1.01424e-05 1.77143e-05 1.73904e-05 1.56556e-05 1.01424e-05 1.18363e-05 1.36172e-05 1.1565e-05 7.60519e-06 1.45829e-05 1.30481e-05 1.40803e-05 6.228e-06 1.40803e-05 1.23693e-05 1.45829e-05 6.228e-06 1.1713e-05 1.06413e-05 1.18123e-05 9.6214e-06 1.62854e-05 1.42218e-05 1.56792e-05 5.68165e-06 1.56792e-05 1.42356e-05 1.62854e-05 5.68165e-06 0 0 0 1.03866e-05 0 1.09063e-05 1.07085e-05 7.43725e-06 1.09139e-05 1.05723e-05 1.10004e-05 6.28613e-06 1.42946e-05 1.35182e-05 1.46463e-05 9.33316e-06 1.46463e-05 1.20164e-05 1.42946e-05 9.33316e-06 1.09139e-05 1.12587e-05 1.05723e-05 6.28613e-06 1.43717e-05 1.03286e-05 5.91875e-06 9.64426e-06 1.23482e-05 1.31654e-05 1.33843e-05 7.54124e-06 1.76249e-05 1.60753e-05 1.77085e-05 1.15595e-05 1.76249e-05 1.5951e-05 1.76551e-05 1.15595e-05 1.76551e-05 1.61135e-05 1.76249e-05 1.15595e-05 1.77085e-05 1.57011e-05 1.76249e-05 1.15595e-05 1.65739e-05 1.47217e-05 1.65997e-05 1.05247e-05 1.66823e-05 1.52225e-05 1.65997e-05 1.05247e-05 1.65997e-05 1.52027e-05 1.65739e-05 1.05247e-05 1.65997e-05 1.47377e-05 1.66823e-05 1.05247e-05 1.66706e-05 1.79067e-05 1.81638e-05 1.37153e-05 1.81638e-05 1.79067e-05 1.62812e-05 1.37153e-05 1.65372e-05 1.44283e-05 1.65144e-05 1.09178e-05 1.65372e-05 1.53575e-05 1.66108e-05 1.09178e-05 1.66108e-05 1.44966e-05 1.65372e-05 1.09178e-05 1.65144e-05 1.53213e-05 1.65372e-05 1.09178e-05 1.77085e-05 1.56998e-05 1.71557e-05 1.12796e-05 1.71557e-05 1.57011e-05 1.77085e-05 1.12796e-05 1.82406e-05 1.6483e-05 1.84626e-05 6.61087e-06 1.84626e-05 1.63865e-05 1.82406e-05 6.61087e-06 1.76096e-05 1.60899e-05 1.7606e-05 1.233e-05 1.7606e-05 1.57365e-05 1.76096e-05 1.233e-05 1.72206e-05 1.56472e-05 1.75697e-05 1.16029e-05 1.75697e-05 1.56565e-05 1.72206e-05 1.16029e-05 0 0 6.10731e-06 5.55451e-06 0 0 0 5.46268e-06 1.86555e-05 1.85026e-05 1.67464e-05 1.2263e-05 1.86555e-05 1.69771e-05 1.85026e-05 1.2263e-05 1.85249e-05 1.66638e-05 1.85153e-05 1.21716e-05 1.85153e-05 1.66704e-05 1.85249e-05 1.21716e-05 1.85249e-05 1.86714e-05 1.70939e-05 1.21716e-05 1.85249e-05 1.66904e-05 1.86714e-05 1.21716e-05 1.85153e-05 1.66638e-05 1.84875e-05 1.23009e-05 1.84875e-05 1.66534e-05 1.85153e-05 1.23009e-05 1.87948e-05 1.88419e-05 1.69696e-05 1.23389e-05 1.87948e-05 1.70064e-05 1.89044e-05 1.23389e-05 1.87948e-05 1.69316e-05 1.88419e-05 1.23389e-05 1.89044e-05 1.71399e-05 1.87948e-05 1.23389e-05 1.75655e-05 1.59355e-05 1.76358e-05 1.18741e-05 1.75655e-05 1.76358e-05 1.55776e-05 1.18741e-05 1.75331e-05 1.59666e-05 1.74831e-05 1.15475e-05 1.72206e-05 1.56565e-05 1.71225e-05 1.15475e-05 1.74831e-05 1.58379e-05 1.75331e-05 1.15475e-05 1.71225e-05 1.51938e-05 1.72206e-05 1.15475e-05 1.35417e-05 7.99257e-06 1.35767e-05 8.62091e-06 1.87984e-05 1.6955e-05 1.88419e-05 1.25028e-05 1.88419e-05 1.69355e-05 1.87984e-05 1.25028e-05 1.47208e-05 1.35458e-05 1.52655e-05 6.4228e-06 1.52655e-05 1.30618e-05 1.47208e-05 6.4228e-06 1.84748e-05 1.67264e-05 1.8462e-05 1.18179e-05 1.8462e-05 1.67336e-05 1.84748e-05 1.18179e-05 1.32895e-05 1.14479e-05 1.386e-05 7.43725e-06 1.32895e-05 1.386e-05 1.24055e-05 7.43725e-06 1.86659e-05 1.87142e-05 1.69497e-05 1.42038e-05 1.72219e-05 1.87142e-05 1.86659e-05 1.42038e-05 1.86075e-05 1.71195e-05 1.86659e-05 1.42038e-05 1.86659e-05 1.68658e-05 1.86075e-05 1.42038e-05 1.5871e-05 1.43947e-05 1.64581e-05 1.00131e-05 1.64581e-05 1.44414e-05 1.5871e-05 1.00131e-05 1.49539e-05 1.36438e-05 1.58477e-05 1.03029e-05 1.58477e-05 1.41531e-05 1.49539e-05 1.03029e-05 1.82771e-05 1.8338e-05 1.6567e-05 1.21416e-05 1.8338e-05 1.82771e-05 1.67098e-05 1.21416e-05 1.86235e-05 1.70766e-05 1.85262e-05 1.22473e-05 1.85262e-05 1.66853e-05 1.86235e-05 1.22473e-05 1.87068e-05 1.69223e-05 1.86983e-05 1.25967e-05 1.86983e-05 1.68838e-05 1.87068e-05 1.25967e-05 1.85272e-05 1.69275e-05 1.83832e-05 1.23243e-05 1.83832e-05 1.64831e-05 1.85272e-05 1.23243e-05 1.84693e-05 1.66853e-05 1.84484e-05 1.23243e-05 1.84484e-05 1.6882e-05 1.84693e-05 1.23243e-05 1.86405e-05 1.86525e-05 1.68979e-05 1.28227e-05 1.86525e-05 1.86405e-05 1.69164e-05 1.28227e-05 1.86144e-05 1.68392e-05 1.86137e-05 1.24813e-05 1.86137e-05 1.67799e-05 1.86144e-05 1.24813e-05 1.85203e-05 1.6766e-05 1.86144e-05 1.24133e-05 1.86024e-05 1.68585e-05 1.86087e-05 1.24133e-05 1.86144e-05 1.67799e-05 1.85203e-05 1.24133e-05 1.86087e-05 1.69798e-05 1.86024e-05 1.24133e-05 1.6955e-05 1.87979e-05 1.88419e-05 1.24779e-05 1.87979e-05 1.69696e-0